
 *******************************************************************************
 *                                                                             *
 *  -------------------------------------                                      *
 *   Amsterdam Density Functional  (ADF)         2014                          *
 *  -------------------------------------                                      *
 *                                               r48167 2015-10-14             *
 *                                                                             *
 *                                                                             *
 *                            =====================                            *
 *                            |                   |                            *
 *                            |     D I R A C     |                            *
 *                            |                   |                            *
 *                            =====================                            *
 *                                                                             *
 *                                                                             *
 *   Online information and documentation:  http://www.scm.com                 *
 *   E-mail:  support@scm.com   info@scm.com                                   *
 *                                                                             *
 *   Scientific publications using ADF results must be properly referenced     *
 *   See the User Manuals (or the web site) for recommended citations          *
 *   The terms and conditions of the End User License Agreement apply to       *
 *   the use of ADF, http://www.scm.com/Sales/LicAgreement.html                *
 *                                                                             *
 **********************  x86_64_linux_intel / intelmpi  ************************
 
 Licensed to: Prof. Max Holthausen / Johann Wolfgang Goethe-Universit?t / Frankfurt Am Main / GERMANY
 SCM User ID: u11912
  
 DIRAC 2014  RunTime: Jul03-2018 13:07:17  Nodes: 1  Procs: 1

 Temporary files are created in /scratch/29415/loeschmich/kid_0.zfUMZM

1
 HYDROGEN ATOM RELATIVISTIC, Point Nuc, A and c from libtc   
 N J RN H ZN XION ANUC CLIGHT
 5000    1100.00000000197.36710137  1.00000000  0.00000000    1.007825  0.1370360E+03
  PH   PHI     EPS        DEL        DELRVR
  0.30  0.30     2500.00  0.00001000  0.00001000
 IDIRC  NC1  NDEBU NPRIN  IPUN IRCOR IWCOR
   1   300     0     0     0     0     0
   XALPHA      XLATTER      RNUC
  0.70000000  0.00000000  0.00000000 Point Charge
   XN   XL   XJ      XE          XZ      XDELL
  1.0  0.0  0.5      -1.000       1.000     0.00000
 ICORP=  0  NPCL=  0  DEMP=0.00  PEPS=0.000000
 R(1)=  0.1000000E-08 D=  0.1005080E+01 RNUC=  0.0000000E+00
 converged at cycle   32  DENSITY AVERAGING    0.2400
  MAXIMUM ERROR IN R.V(R) IS   0.79874357E-05
 Q,EY,EV,EZ,ESUM,ETOT,RHO  0.100000E+01 -0.266614E+00 -0.619969E+00 -0.910779E+00 -0.203940E+00 -0.415998E+00  0.337036E-17


 DIRAC CALCULATION
1                    HYDROGEN ATOM RELATIVISTIC, Point Nuc, A and c from libtc


 EXCHANGE COEFFICIENT=  0.7000000           TAIL CORRECTION=  0.           NUCLEAR RADIUS=  0.000E+00
0                       ORBITAL    N    L    J     ELECTRONS     EIGENVALUE                DELTA OF EIGENV.

                          1S1/2  1.0  0.0  0.5     1.000       -0.2039397E+00                 0.2720093E-06


                                        NUCLEAR CHARGE=    1.000000
                            INTEGRAL OF CHARGE DENSITY=    1.000000
                           SUM OF THE ORBITAL ENERGIES=     -0.2039
                                          TOTAL ENERGY=     -0.4160
                                        KINETIC ENERGY=      0.4160
                             NUCLEAR ATTRACTION ENERGY=     -0.9108
                             ELECTRON REPULSION ENERGY=      0.2787
                                       EXCHANGE ENERGY=     -0.2000

 *******************************************************************************

                             D I R A C   E X I T
 NORMAL TERMINATION



 =================
 Timing Statistics
 =================
  
 Total Used :                     CPU=        0.16      System=        0.02     Elapsed=        0.22

 Calls  Section                     ( Mean, Percentage )
 ---------------------------------------------------------------------------------------------------
     2  ><      ................      0.00    0.00             0.00    0.00             0.00    0.01
     1  EXIT PROCEDURE .........      0.16  100.00             0.02  100.00             0.22   99.99


 Currently Open Files (EXIT00)
 ====================

 Unit    Access Format  Status   Type       Ident (file)
 -------------------------------------------------------
   3      SEQ    FORM   TRANSP  NORMAL      LOGFILE
                                          ( logfile )


 Buffered I/O statistics
 =======================
 Memory available:                     67108864
 Number of records fitting in memory:     16131
 Input : 100.0% of                            0  *4k bytes
 Output: 100.0% of                            0  *4k bytes
 Records from serial files evicted:           0
                    others evicted:           0
 Hash table lookups:          0 with          0 conflicts (100.00%)

Create H   file=/mnt/gv0/soft/adf/adf2014.10/atomicdata/ZORA/DZP/H
xc
 gga pbe
End
relativistic ZORA
Corepotentials t12.rel
End Input

 *******************************************************************************
 *                                                                             *
 *  -------------------------------------                                      *
 *   Amsterdam Density Functional  (ADF)         2014                          *
 *  -------------------------------------                                      *
 *                                               r48167 2015-10-14             *
 *                                                                             *
 *                                                                             *
 *                              =================                              *
 *                              |               |                              *
 *                              |     A D F     |                              *
 *                              |               |                              *
 *                              =================                              *
 *                                                                             *
 *                                                                             *
 *   Online information and documentation:  http://www.scm.com                 *
 *   E-mail:  support@scm.com   info@scm.com                                   *
 *                                                                             *
 *   Scientific publications using ADF results must be properly referenced     *
 *   See the User Manuals (or the web site) for recommended citations          *
 *   The terms and conditions of the End User License Agreement apply to       *
 *   the use of ADF, http://www.scm.com/Sales/LicAgreement.html                *
 *                                                                             *
 **********************  x86_64_linux_intel / intelmpi  ************************
 
 Licensed to: Prof. Max Holthausen / Johann Wolfgang Goethe-Universit?t / Frankfurt Am Main / GERMANY
 SCM User ID: u11912
  
 ADF 2014  RunTime: Jul03-2018 13:07:18  Nodes: 1  Procs: 1

 Temporary files are created in /scratch/29415/loeschmich/kid_0.fld1Fm

 Hydrogen (DZP)



 ===========================
 A T T A C H E D   F I L E S
 ===========================
  
 CREATE - Data File:    /mnt/gv0/soft/adf/adf2014.10/atomicdata/ZORA/DZP/H
                        Hydrogen (DZP)
 Core Potentials:
         file : t12.rel



 ===============================
 M O D E L   P A R A M E T E R S
 ===============================
  
 DENSITY FUNCTIONAL POTENTIAL (scf)
    LDA:                               PW92                                    == Not Default ==
    Gradient Corrections:              PBEc PBEx                               == Not Default ==

 SPIN  (restricted / unrestr.)
    Molecule:                          Restricted                               

 OTHER ASPECTS
    Relativistic Corrections:          scalar (ZORA,SAPA)                      == Not Default ==

    Nuclear Charge Density Model:      Point Charge Nuclei                                                                                                                                                                                     
    Core Treatment:                    Frozen Orbital(s)                        

    Hyperfine or Zeeman Interaction:   ---                                      



 =====================================
 S Y M M E T R Y ,   E L E C T R O N S
 =====================================
  
 Symmetry: ATOM

 Irreducible Representations, including subspecies
 -------------------------------------------------
 S
 P:x  P:y  P:z
 D:z2  D:x2-y2  D:xy  D:xz  D:yz
 F:z3  F:z  F:xyz  F:z2x  F:z2y  F:x  F:y


 Configuration of Valence Electrons
 ==================================

          Occupation Numbers
          -------------------------------------------------
 S        1
 P        0
 D        0
 F        0
          -------------------------------------------------

 Total:   1

 Net Charge: 0 (Nuclei minus Electrons)

 Preset values for MO occupations will be applied through SCF cycle no. 1000000
 Thereafter, the program will assign electrons to MOs that are spatially
 similar to the occupied MOs in a "reference" cycle ("KeepOrbitals").
 The reference cycle is always the PREVIOUS cycle: it will evolve with
 the SCF procedure.



 ================================
 (Slater-type)  F U N C T I O N S  ***  (Basis and Fit)  ***
 ================================
  

 Atom Type    1  (H)
 ==============

 Valence Basis Sets:   3
 -----------------------
   1 S    0.760000
   1 S    1.280000
   2 P    1.250000


 BAS: List of all Elementary Cartesian Basis Functions
 =====================================================

 The numbering in the list below (to the right of the function characteristics) is referred
 to in print-outs of MO eigenvectors and Mulliken populations in the BAS representation
 (as contrasted to the SFO representation).

 Notes:
 1. The functions are characterized by a polynomial prefactor (powers of x,y,z and r) and
    an exponential decay factor alpha.
 2. Since the basis sets are specific for an atom TYPE, the individual functions occur on
    all atoms of that type.
 3. The word 'Core' in the left margin signals that it is a Core Function (CF) : not a
    degree of freedom in the valence set, but only used to ensure orthogonalization of
    the other valence basis functions on the frozen Core Orbitals.


 (power of) X  Y  Z  R     Alpha  on Atom
            ==========     =====     ==========

 H                                    1
                                  ---------------------------------------------------------------------------
            0  0  0  0     0.760      1
            0  0  0  0     1.280      2
            1  0  0  0     1.250      3
            0  1  0  0     1.250      4
            0  0  1  0     1.250      5

 Total number of charge fitting functions (nprimf)        50
 Total number of Cartesian basis functions (naos)          5
 Total number of Cartesian core functions  (ncos)          0



 BAS: List of all Elementary Cartesian Basis Functions
 =====================================================

 The numbering in the list below (to the right of the function characteristics) is referred
 to in print-outs of MO eigenvectors and Mulliken populations in the BAS representation
 (as contrasted to the SFO representation).

 Notes:
 1. The functions are characterized by a polynomial prefactor (powers of x,y,z and r) and
    an exponential decay factor alpha.
 2. Since the basis sets are specific for an atom TYPE, the individual functions occur on
    all atoms of that type.
 3. The word 'Core' in the left margin signals that it is a Core Function (CF) : not a
    degree of freedom in the valence set, but only used to ensure orthogonalization of
    the other valence basis functions on the frozen Core Orbitals.


 (power of) X  Y  Z  R     Alpha  on Atom
            ==========     =====     ==========

 H                                    1
                                  ---------------------------------------------------------------------------
            0  0  0  0     0.760      1
            0  0  0  0     1.280      2
            1  0  0  0     1.250      3
            0  1  0  0     1.250      4
            0  0  1  0     1.250      5
1
 ***************************************************************************************************



                                              ***********************
                                              *  T E C H N I C A L  *
                                              ***********************
  



 =============================================================
 P A R A L L E L I Z A T I O N  and  V E C T O R I Z A T I O N
 =============================================================
  
 Nr of parallel processes:                                1
 Maximum vector length in NumInt loops:                 128



 ===============
 I O  vs.  C P U  ***  (store numerical data on disk or recalculate)  ***
 ===============
  
 Basis functions:   recalculate when needed
 Fit functions:     recalculate when needed

 IO buffersize (Mb):                                     64.000000



 =====================
 S C F   U P D A T E S
 =====================
  
 Max. nr. of cycles:                               300
 Convergence criterion:                              0.0000000100
   secondary criterion:                              0.0000000100

 Mix parameter (when DIIS does not apply):           0.2000000000
 Special mix parameter for the first cycle:          1.0000000000


 DIIS (Direct Inversion in Iteration Space)
    Replace damping when SCF Error is below:         0.5000000000
    Apply anyway after SCF cycle:
                                                     5
    (Max.) nr. of expansion vectors:                10

    Upperbound on expansion coefficients:            5.0000000000
    (when exceeded, IterationSpace is re-built)
    2nd Upperbound on coefficients:                 25.0000000000
    (when exceeded, simple damping will be used)
 Automatic ElectronSmearing (in case of problematic SCF convergence) disabled



 =================
 P R E C I S I O N  ***  (General: NumInt, NeglectFunctionTails, ...)  ***
 =================
  

 NumInt:           Target precision:                10.0000000000
 -------           Initial precision:               10.0000000000
                   Min. precision (optimization):   10.0000000000

 Neglect Functions:          Basis functions:        0.1000000000E-11
 ------------------          Fit functions:          0.1000000000E-11



 ===========================
 L I N E A R   S C A L I N G
 ===========================
  

 Cut-off radii density fit:                        0.1000000000E-13
 Overlap cut-off criterion AO matrix elements:     0.1000000000E-11
 Cut-offs for Coulomb potential and fitted density:0.1000000000E-13
 Cut-off criterion for Coulomb multipole terms:    0.1000000000E-13
 Progressive Convergence parameter:                 0.000000000    
1
 ***************************************************************************************************



                                            ***************************
                                            *  C O M P U T A T I O N  *
                                            ***************************
  

 Number of elements of the density matrix on this node (used, total):        15        15



 ===========================================
 Numerical Integration : Fuzzy Cells (Becke)
 ===========================================
  
 Becke grid quality: VERYGOOD       
  
 Lebedev angular grid order:             min:  13 max:  41
 Nr. of radial points:                   min:  64 max:  64

 Total nr. of points:         64
 Nr. of blocks:                1
 Block length:                64
 Nr. of dummy points:          0


 Test of Precision of the Numerical Integration Grid
 ===================================================

 Integral of the Total Core Density:                   0.00000000000000



 ========================
 Density Fitting (zlmFit)
 ========================
  
 ZlmFit Fit Quality: VERYGOOD       
  
 Max L-expansion:                        min:   0 max:   0
 Nr. of radial interpolation points:     min: 120 max: 120



 =====
 S C F
 =====
  

 CYCLE    1
 orbitals (Q,E):
 ---------------
 S :1...2            ( 1.00    -0.4983)  ( 0.00     0.1718)
 P :1...1            ( 0.00     0.1562)

 CYCLE    2
 d-Pmat  mean:  0.49E-01
 imax=      1:  0.15E+00
 orbitals (Q,E):
 ---------------
 S :1...2            ( 1.00    -0.2268)  ( 0.00     0.4005)
 P :1...1            ( 0.00     0.4153)

 CYCLE    3
 d-Pmat  mean:  0.79E-02
 imax=      1: -0.25E-01
 orbitals (Q,E):
 ---------------
 S :1...2            ( 1.00    -0.2402)  ( 0.00     0.3896)
 P :1...1            ( 0.00     0.4041)

 CYCLE    4
 d-Pmat  mean:  0.43E-03
 imax=      1:  0.14E-02
 orbitals (Q,E):
 ---------------
 S :1...2            ( 1.00    -0.2394)  ( 0.00     0.3902)
 P :1...1            ( 0.00     0.4048)

 CYCLE    5
 d-Pmat  mean:  0.24E-04
 imax=      1: -0.76E-04
 orbitals (Q,E):
 ---------------
 S :1...2            ( 1.00    -0.2394)  ( 0.00     0.3902)
 P :1...1            ( 0.00     0.4048)

 CYCLE    6
 d-Pmat  mean:  0.13E-05
 imax=      1:  0.42E-05
 orbitals (Q,E):
 ---------------
 S :1...2            ( 1.00    -0.2394)  ( 0.00     0.3902)
 P :1...1            ( 0.00     0.4048)

 CYCLE    7
 d-Pmat  mean:  0.74E-07
 imax=      1: -0.23E-06
 orbitals (Q,E):
 ---------------
 S :1...2            ( 1.00    -0.2394)  ( 0.00     0.3902)
 P :1...1            ( 0.00     0.4048)

 CYCLE    8
 d-Pmat  mean:  0.41E-08
 imax=      1:  0.13E-07
 orbitals (Q,E):
 ---------------
 S :1...2            ( 1.00    -0.2394)  ( 0.00     0.3902)
 P :1...1            ( 0.00     0.4048)

 SCF CONVERGED

 CYCLE    9
1
 ***************************************************************************************************



                                                *******************
                                                *  R E S U L T S  *
                                                *******************
  
 *** Setting up for NEW gradients in focky
 *** Using FIT density in focky

 Scaled ZORA Orbital Energies, per Irrep and Spin:
 =================================================
                        Occup              E (au)              E (eV)       Diff (eV) with prev. cycle
                        -----      --------------------        ------       --------------------------
 S
               1        1.000     -0.23939248907359E+00        -6.514               3.95E-09
               2        0.000      0.39021645948975E+00        10.618
 P
               1        0.000      0.40480887438050E+00        11.015


 Partially Occupied:
               1 S                -0.23939248907359E+00
  
 LUMO :        2 S                 0.39021645948975E+00
  


 Orbital Energies, all Irreps
 ========================================

 Irrep        no.  (spin)   Occup              E (au)                E (eV)
 ---------------------------------------------------------------------------
 S             1             1.00       -0.23939248907359E+00        -6.5142
 S             2             0.00        0.39021645948975E+00        10.6183
 P             1             0.00        0.40480887438050E+00        11.0154


 All Electron Calculation, thus no Orbital Energies of the Core Orbitals are calculated



 =======================================
 M U L L I K E N   P O P U L A T I O N S
 =======================================
  
 The survey below gives for each atom:
 a) the total charge (Z minus electrons)
 b) the net spin polarization (nr of electrons spin-A minus spin-B)
 c) for each spin the atomic electron valence density (integrated) per L-value.

 Atom              Charge    Spin density          S         P         D         F
 ----              ------    ------------       ------    ------    ------    ------
 1 H               0.0000                       1.0000    0.0000    0.0000    0.0000

 Populations of individual BAS functions
 ----------------------------------------
 1 H            0.6465  0.3535  0.0000  0.0000  0.0000

 Gross Charges per Atom (Z minus electrons)
 ==========================================
             0.0000
 Net Total:  0.00000000



 =======================================================================
 Electrostatic potential at the Nuclei due to electrons and other nuclei
 =======================================================================
  
         Atom                  Potential
         ----                  ---------
     1)   H                   0.94379605
 
 
 ========================
 No memory problems found
 ========================
 
 Maximum number of active allocate calls:         319
 
 *******************************************************************************

                             A D F   E X I T
 NORMAL TERMINATION



 =================
 Timing Statistics
 =================
  
 Total Used :                     CPU=        0.41      System=        0.07     Elapsed=        0.57

 Calls  Section                     ( Mean, Percentage )
 ---------------------------------------------------------------------------------------------------
     3  ><      ................      0.00    0.00             0.00    5.56             0.00    1.23
     1  INIT    ................      0.02    3.88             0.03   38.89             0.08   13.31
     1  GEOMET  ................      0.03    6.80             0.02   22.22             0.05    8.46
     1  INPUTA  ................      0.00    0.00             0.00    5.56             0.01    1.98
     1  MAINSY  ................      0.01    1.94             0.00    0.00             0.02    3.07
     1  SYMFIT  ................      0.00    0.00             0.00    0.00             0.00    0.17
     1  CORORT  ................      0.00    0.00             0.00    0.00             0.00    0.13
     1  SYMORB  ................      0.00    0.97             0.00    0.00             0.00    0.13
     1  CLSMAT  ................      0.00    0.00             0.00    0.00             0.00    0.74
     1  ORTHON  ................      0.00    0.97             0.00    0.00             0.00    0.28
     1  GENPT   ................      0.02    5.83             0.01   16.67             0.04    7.14
     1  PTBAS   ................      0.00    0.97             0.00    0.00             0.00    0.63
     9  FOCKY   ................      0.03   65.05             0.00    5.56             0.03   47.72
     9  FOCKTR  ................      0.00    0.00             0.00    0.00             0.00    0.38
     9  FOCKNM  ................      0.00    0.00             0.00    0.00             0.00    0.06
     9  SDIIS   ................      0.00    0.00             0.00    0.00             0.00    0.98
     9  EMERGE  ................      0.00    2.91             0.00    5.56             0.00    5.02
     1  COREPS  ................      0.02    3.88             0.00    0.00             0.02    2.82
     1  POPAN   ................      0.00    0.00             0.00    0.00             0.00    0.75
     1  DEBYE   ................      0.00    0.00             0.00    0.00             0.00    0.12
     1  EXIT PROCEDURE .........      0.03    6.80             0.00    0.00             0.03    4.89


 Currently Open Files (EXIT00)
 ====================

 Unit    Access Format  Status   Type       Ident (file)
 -------------------------------------------------------
   3      SEQ    FORM   TRANSP  NORMAL      LOGFILE
                                          ( logfile )


 Buffered I/O statistics
 =======================
 Memory available:                     67108864
 Number of records fitting in memory:     16131
 Input :   1.7% of                         2449  *4k bytes
 Output:  11.7% of                         1466  *4k bytes
 Records from serial files evicted:           0
                    others evicted:           0
 Hash table lookups:      10717 with          0 conflicts (  0.00%)

 ***************************************************************************************************
 (LOGFILE)
 <Jul03-2018> <13:07:17>  DIRAC 2014  RunTime: Jul03-2018 13:07:17  Nodes: 1  Procs: 1
 <Jul03-2018> <13:07:17>  NORMAL TERMINATION
 <Jul03-2018> <13:07:17>  END
 <Jul03-2018> <13:07:18>  ADF 2014  RunTime: Jul03-2018 13:07:18  Nodes: 1  Procs: 1
 <Jul03-2018> <13:07:18>  Hydrogen (DZP)
 <Jul03-2018> <13:07:18>  RunType   : CREATE
 <Jul03-2018> <13:07:18>  Net Charge: 0 (Nuclei minus Electrons)
 <Jul03-2018> <13:07:18>  Symmetry  : ATOM
  Coordinates
    Atom         X           Y           Z   (Angstrom)
    1.H         0.000000    0.000000    0.000000
 <Jul03-2018> <13:07:18>  >>>> CORORT
 <Jul03-2018> <13:07:18>  >>>> CLSMAT
 <Jul03-2018> <13:07:18>  >>>> ORTHON
 <Jul03-2018> <13:07:18>  >>>> GENPT
 <Jul03-2018> <13:07:18>  Block Length=  64
 <Jul03-2018> <13:07:18>  >>>> PTBAS
 <Jul03-2018> <13:07:18>  >>>> CYCLE
 <Jul03-2018> <13:07:18>    1
 <Jul03-2018> <13:07:18>    2  ErrMat   0.03300193  MaxEl  0.03300193
 <Jul03-2018> <13:07:18>    3  ErrMat   0.00595445  MaxEl -0.00595445
 <Jul03-2018> <13:07:18>    4  ErrMat   0.00032522  MaxEl  0.00032522
 <Jul03-2018> <13:07:18>    5  ErrMat   0.00001808  MaxEl -0.00001808
 <Jul03-2018> <13:07:18>    6  ErrMat   0.00000100  MaxEl  0.00000100
 <Jul03-2018> <13:07:18>    7  ErrMat   0.00000006  MaxEl -0.00000006
 <Jul03-2018> <13:07:18>    8  ErrMat   0.00000000  MaxEl  0.00000000
 <Jul03-2018> <13:07:18>  SCF converged
 <Jul03-2018> <13:07:18>    9  ErrMat   0.00000000  MaxEl  0.00000000
 <Jul03-2018> <13:07:18>   Solutions with partially occupied orbitals may not be
 <Jul03-2018> <13:07:18>   lowest in energy. You might consider lowering the
 <Jul03-2018> <13:07:18>   symmetry in the input and explicitly specifying integer
 <Jul03-2018> <13:07:18>   occupations. In that case always check that you obtain
 <Jul03-2018> <13:07:18>   an aufbau solution.
 <Jul03-2018> <13:07:18>  >>>> POPAN
 <Jul03-2018> <13:07:18>  >>>> DEBYE
 <Jul03-2018> <13:07:18>  NORMAL TERMINATION
 <Jul03-2018> <13:07:18>  END

 *******************************************************************************
 *                                                                             *
 *  -------------------------------------                                      *
 *   Amsterdam Density Functional  (ADF)         2014                          *
 *  -------------------------------------                                      *
 *                                               r48167 2015-10-14             *
 *                                                                             *
 *                                                                             *
 *                            =====================                            *
 *                            |                   |                            *
 *                            |     D I R A C     |                            *
 *                            |                   |                            *
 *                            =====================                            *
 *                                                                             *
 *                                                                             *
 *   Online information and documentation:  http://www.scm.com                 *
 *   E-mail:  support@scm.com   info@scm.com                                   *
 *                                                                             *
 *   Scientific publications using ADF results must be properly referenced     *
 *   See the User Manuals (or the web site) for recommended citations          *
 *   The terms and conditions of the End User License Agreement apply to       *
 *   the use of ADF, http://www.scm.com/Sales/LicAgreement.html                *
 *                                                                             *
 **********************  x86_64_linux_intel / intelmpi  ************************
 
 Licensed to: Prof. Max Holthausen / Johann Wolfgang Goethe-Universit?t / Frankfurt Am Main / GERMANY
 SCM User ID: u11912
  
 DIRAC 2014  RunTime: Jul03-2018 13:07:18  Nodes: 1  Procs: 1

 Temporary files are created in /scratch/29415/loeschmich/kid_0.469YMb

1
 CARBON ATOM 1s CORE RELATIVISTIC, Point Nuc, A and c from li
 N J RN H ZN XION ANUC CLIGHT
 5000    4100.00000000197.36710137  6.00000000  0.00000000   12.000000  0.1370360E+03
  PH   PHI     EPS        DEL        DELRVR
  0.30  0.30     2500.00  0.00001000  0.00001000
 IDIRC  NC1  NDEBU NPRIN  IPUN IRCOR IWCOR
   1   300     0     0     0     0     1
   XALPHA      XLATTER      RNUC
  0.70000000  0.00000000  0.00000000 Point Charge
   XN   XL   XJ      XE          XZ      XDELL
  1.0  0.0  0.5      -5.000       2.000     0.00000
  2.0  0.0  0.5      -1.000       2.000     0.00000
  2.0  1.0  0.5      -1.000       2.000     0.00000
  2.0  1.0  1.5      -1.000       0.000     0.00000
 ICORP=  0  NPCL=  0  DEMP=0.00  PEPS=0.000000
 R(1)=  0.1000000E-08 D=  0.1005080E+01 RNUC=  0.0000000E+00
 converged at cycle   26  DENSITY AVERAGING    0.3000
  MAXIMUM ERROR IN R.V(R) IS   0.55010513E-05
 Q,EY,EV,EZ,ESUM,ETOT,RHO  0.600000E+01 -0.610129E+01 -0.585189E+02 -0.876464E+02 -0.211985E+02 -0.372876E+02  0.164808E-14


 DIRAC CALCULATION
1                    CARBON ATOM 1s CORE RELATIVISTIC, Point Nuc, A and c from libtc


 EXCHANGE COEFFICIENT=  0.7000000           TAIL CORRECTION=  0.           NUCLEAR RADIUS=  0.000E+00
0                       ORBITAL    N    L    J     ELECTRONS     EIGENVALUE                DELTA OF EIGENV.

                          1S1/2  1.0  0.0  0.5     2.000       -0.9959611E+01                 0.1355092E-04
                          2S1/2  2.0  0.0  0.5     2.000       -0.4708542E+00                 0.1106918E-05
                          2P1/2  2.0  1.0  0.5     2.000       -0.1687896E+00                 0.8770186E-06
                          2P3/2  2.0  1.0  1.5     0.000       -0.1684646E+00                 0.8770830E-06


                                        NUCLEAR CHARGE=    6.000000
                            INTEGRAL OF CHARGE DENSITY=    6.000000
                           SUM OF THE ORBITAL ENERGIES=    -21.1985
                                          TOTAL ENERGY=    -37.2876
                                        KINETIC ENERGY=     37.3204
                             NUCLEAR ATTRACTION ENERGY=    -87.6464
                             ELECTRON REPULSION ENERGY=     17.6144
                                       EXCHANGE ENERGY=     -4.5760

 *******************************************************************************

                             D I R A C   E X I T
 NORMAL TERMINATION



 =================
 Timing Statistics
 =================
  
 Total Used :                     CPU=        0.23      System=        0.03     Elapsed=        0.29

 Calls  Section                     ( Mean, Percentage )
 ---------------------------------------------------------------------------------------------------
     2  ><      ................      0.00    0.00             0.00    0.00             0.00    0.01
     1  EXIT PROCEDURE .........      0.23  100.00             0.03  100.00             0.29   99.99


 Currently Open Files (EXIT00)
 ====================

 Unit    Access Format  Status   Type       Ident (file)
 -------------------------------------------------------
   3      SEQ    FORM   TRANSP  NORMAL      LOGFILE
                                          ( logfile )


 Buffered I/O statistics
 =======================
 Memory available:                     67108864
 Number of records fitting in memory:     16131
 Input : 100.0% of                            0  *4k bytes
 Output: 100.0% of                            0  *4k bytes
 Records from serial files evicted:           0
                    others evicted:           0
 Hash table lookups:          0 with          0 conflicts (100.00%)

Create C   file=/mnt/gv0/soft/adf/adf2014.10/atomicdata/ZORA/DZP/C.1s
xc
 gga pbe
End
relativistic ZORA
Corepotentials t12.rel
End Input

 *******************************************************************************
 *                                                                             *
 *  -------------------------------------                                      *
 *   Amsterdam Density Functional  (ADF)         2014                          *
 *  -------------------------------------                                      *
 *                                               r48167 2015-10-14             *
 *                                                                             *
 *                                                                             *
 *                              =================                              *
 *                              |               |                              *
 *                              |     A D F     |                              *
 *                              |               |                              *
 *                              =================                              *
 *                                                                             *
 *                                                                             *
 *   Online information and documentation:  http://www.scm.com                 *
 *   E-mail:  support@scm.com   info@scm.com                                   *
 *                                                                             *
 *   Scientific publications using ADF results must be properly referenced     *
 *   See the User Manuals (or the web site) for recommended citations          *
 *   The terms and conditions of the End User License Agreement apply to       *
 *   the use of ADF, http://www.scm.com/Sales/LicAgreement.html                *
 *                                                                             *
 **********************  x86_64_linux_intel / intelmpi  ************************
 
 Licensed to: Prof. Max Holthausen / Johann Wolfgang Goethe-Universit?t / Frankfurt Am Main / GERMANY
 SCM User ID: u11912
  
 ADF 2014  RunTime: Jul03-2018 13:07:19  Nodes: 1  Procs: 1

 Temporary files are created in /scratch/29415/loeschmich/kid_0.3YRsJG

 Carbon (DZP, 1s frozen)



 ===========================
 A T T A C H E D   F I L E S
 ===========================
  
 CREATE - Data File:    /mnt/gv0/soft/adf/adf2014.10/atomicdata/ZORA/DZP/C.1s
                        Carbon (DZP, 1s frozen)
 Core Potentials:
         file : t12.rel



 ===============================
 M O D E L   P A R A M E T E R S
 ===============================
  
 DENSITY FUNCTIONAL POTENTIAL (scf)
    LDA:                               PW92                                    == Not Default ==
    Gradient Corrections:              PBEc PBEx                               == Not Default ==

 SPIN  (restricted / unrestr.)
    Molecule:                          Restricted                               

 OTHER ASPECTS
    Relativistic Corrections:          scalar (ZORA,SAPA)                      == Not Default ==

    Nuclear Charge Density Model:      Point Charge Nuclei                                                                                                                                                                                     
    Core Treatment:                    Frozen Orbital(s)                        

    Hyperfine or Zeeman Interaction:   ---                                      



 =====================================
 S Y M M E T R Y ,   E L E C T R O N S
 =====================================
  
 Symmetry: ATOM

 Irreducible Representations, including subspecies
 -------------------------------------------------
 S
 P:x  P:y  P:z
 D:z2  D:x2-y2  D:xy  D:xz  D:yz
 F:z3  F:z  F:xyz  F:z2x  F:z2y  F:x  F:y


 Configuration of Valence Electrons
 ==================================

          Occupation Numbers
          -------------------------------------------------
 S        2
 P        2
 D        0
 F        0
          -------------------------------------------------

 Total:   4

 Net Charge: 0 (Nuclei minus Electrons)

 Preset values for MO occupations will be applied through SCF cycle no. 1000000
 Thereafter, the program will assign electrons to MOs that are spatially
 similar to the occupied MOs in a "reference" cycle ("KeepOrbitals").
 The reference cycle is always the PREVIOUS cycle: it will evolve with
 the SCF procedure.



 ================================
 (Slater-type)  F U N C T I O N S  ***  (Basis and Fit)  ***
 ================================
  

 Atom Type    1  (C)
 ==============

 Valence Basis Sets:   6
 -----------------------
   1 S    5.400000
   2 S    1.240000
   2 S    1.980000
   2 P    0.960000
   2 P    2.200000
   3 D    2.200000

 Frozen Core Shells
 ------------------
    S:  1


 BAS: List of all Elementary Cartesian Basis Functions
 =====================================================

 The numbering in the list below (to the right of the function characteristics) is referred
 to in print-outs of MO eigenvectors and Mulliken populations in the BAS representation
 (as contrasted to the SFO representation).

 Notes:
 1. The functions are characterized by a polynomial prefactor (powers of x,y,z and r) and
    an exponential decay factor alpha.
 2. Since the basis sets are specific for an atom TYPE, the individual functions occur on
    all atoms of that type.
 3. The word 'Core' in the left margin signals that it is a Core Function (CF) : not a
    degree of freedom in the valence set, but only used to ensure orthogonalization of
    the other valence basis functions on the frozen Core Orbitals.


 (power of) X  Y  Z  R     Alpha  on Atom
            ==========     =====     ==========

 C                                    1
                                  ---------------------------------------------------------------------------
    Core    0  0  0  0     5.400      1
            0  0  0  1     1.240      2
            0  0  0  1     1.980      3
            1  0  0  0     0.960      4
            0  1  0  0     0.960      5
            0  0  1  0     0.960      6
            1  0  0  0     2.200      7
            0  1  0  0     2.200      8
            0  0  1  0     2.200      9
            2  0  0  0     2.200     10
            1  1  0  0     2.200     11
            1  0  1  0     2.200     12
            0  2  0  0     2.200     13
            0  1  1  0     2.200     14
            0  0  2  0     2.200     15

 Total number of charge fitting functions (nprimf)        82
 Total number of Cartesian basis functions (naos)         15
 Total number of Cartesian core functions  (ncos)          1



 BAS: List of all Elementary Cartesian Basis Functions
 =====================================================

 The numbering in the list below (to the right of the function characteristics) is referred
 to in print-outs of MO eigenvectors and Mulliken populations in the BAS representation
 (as contrasted to the SFO representation).

 Notes:
 1. The functions are characterized by a polynomial prefactor (powers of x,y,z and r) and
    an exponential decay factor alpha.
 2. Since the basis sets are specific for an atom TYPE, the individual functions occur on
    all atoms of that type.
 3. The word 'Core' in the left margin signals that it is a Core Function (CF) : not a
    degree of freedom in the valence set, but only used to ensure orthogonalization of
    the other valence basis functions on the frozen Core Orbitals.


 (power of) X  Y  Z  R     Alpha  on Atom
            ==========     =====     ==========

 C                                    1
                                  ---------------------------------------------------------------------------
    Core    0  0  0  0     5.400      1
            0  0  0  1     1.240      2
            0  0  0  1     1.980      3
            1  0  0  0     0.960      4
            0  1  0  0     0.960      5
            0  0  1  0     0.960      6
            1  0  0  0     2.200      7
            0  1  0  0     2.200      8
            0  0  1  0     2.200      9
            2  0  0  0     2.200     10
            1  1  0  0     2.200     11
            1  0  1  0     2.200     12
            0  2  0  0     2.200     13
            0  1  1  0     2.200     14
            0  0  2  0     2.200     15
1
 ***************************************************************************************************



                                              ***********************
                                              *  T E C H N I C A L  *
                                              ***********************
  



 =============================================================
 P A R A L L E L I Z A T I O N  and  V E C T O R I Z A T I O N
 =============================================================
  
 Nr of parallel processes:                                1
 Maximum vector length in NumInt loops:                 128



 ===============
 I O  vs.  C P U  ***  (store numerical data on disk or recalculate)  ***
 ===============
  
 Basis functions:   recalculate when needed
 Fit functions:     recalculate when needed

 IO buffersize (Mb):                                     64.000000



 =====================
 S C F   U P D A T E S
 =====================
  
 Max. nr. of cycles:                               300
 Convergence criterion:                              0.0000000100
   secondary criterion:                              0.0000000100

 Mix parameter (when DIIS does not apply):           0.2000000000
 Special mix parameter for the first cycle:          1.0000000000


 DIIS (Direct Inversion in Iteration Space)
    Replace damping when SCF Error is below:         0.5000000000
    Apply anyway after SCF cycle:
                                                     5
    (Max.) nr. of expansion vectors:                10

    Upperbound on expansion coefficients:            5.0000000000
    (when exceeded, IterationSpace is re-built)
    2nd Upperbound on coefficients:                 25.0000000000
    (when exceeded, simple damping will be used)
 Automatic ElectronSmearing (in case of problematic SCF convergence) disabled



 =================
 P R E C I S I O N  ***  (General: NumInt, NeglectFunctionTails, ...)  ***
 =================
  

 NumInt:           Target precision:                10.0000000000
 -------           Initial precision:               10.0000000000
                   Min. precision (optimization):   10.0000000000

 Neglect Functions:          Basis functions:        0.1000000000E-11
 ------------------          Fit functions:          0.1000000000E-11



 ===========================
 L I N E A R   S C A L I N G
 ===========================
  

 Cut-off radii density fit:                        0.1000000000E-13
 Overlap cut-off criterion AO matrix elements:     0.1000000000E-11
 Cut-offs for Coulomb potential and fitted density:0.1000000000E-13
 Cut-off criterion for Coulomb multipole terms:    0.1000000000E-13
 Progressive Convergence parameter:                 0.000000000    
1
 ***************************************************************************************************



                                            ***************************
                                            *  C O M P U T A T I O N  *
                                            ***************************
  

 Number of elements of the density matrix on this node (used, total):       120       120



 ===========================================
 Numerical Integration : Fuzzy Cells (Becke)
 ===========================================
  
 Becke grid quality: VERYGOOD       
  
 Lebedev angular grid order:             min:  13 max:  41
 Nr. of radial points:                   min:  68 max:  68

 Total nr. of points:         68
 Nr. of blocks:                1
 Block length:                68
 Nr. of dummy points:          0


 Test of Precision of the Numerical Integration Grid
 ===================================================

 Integral of the Total Core Density:                   1.99999999948618
 Relative Error:                                      -2.569E-10



 ========================
 Density Fitting (zlmFit)
 ========================
  
 ZlmFit Fit Quality: VERYGOOD       
  
 Max L-expansion:                        min:   0 max:   0
 Nr. of radial interpolation points:     min: 140 max: 140



 =====
 S C F
 =====
  

 CYCLE    1
 orbitals (Q,E):
 ---------------
 S :1...2            ( 2.00    -2.5623)  ( 0.00    -1.0014)
 P :1...2            ( 2.00    -2.3221)  ( 0.00    -0.9573)
 D :1...1            ( 0.00    -0.6267)

 CYCLE    2
 d-Pmat  mean:  0.56E+00
 imax=      3: -0.31E+01
 orbitals (Q,E):
 ---------------
 S :1...2            ( 2.00    -0.1770)  ( 0.00     0.8162)
 P :1...2            ( 2.00     0.0851)  ( 0.00     0.8638)
 D :1...1            ( 0.00     1.5736)

 CYCLE    3
 d-Pmat  mean:  0.62E-01
 imax=      2: -0.39E+00
 orbitals (Q,E):
 ---------------
 S :1...2            ( 2.00    -0.2831)  ( 0.00     0.6938)
 P :1...2            ( 2.00     0.0009)  ( 0.00     0.7130)
 D :1...1            ( 0.00     1.4552)

 CYCLE    4
 d-Pmat  mean:  0.15E+00
 imax=      2: -0.63E+00
 orbitals (Q,E):
 ---------------
 S :1...2            ( 2.00    -0.5117)  ( 0.00     0.4706)
 P :1...2            ( 2.00    -0.1996)  ( 0.00     0.4459)
 D :1...1            ( 0.00     1.2281)

 CYCLE    5
 d-Pmat  mean:  0.19E-02
 imax=      3: -0.10E-01
 orbitals (Q,E):
 ---------------
 S :1...2            ( 2.00    -0.5133)  ( 0.00     0.4693)
 P :1...2            ( 2.00    -0.2016)  ( 0.00     0.4446)
 D :1...1            ( 0.00     1.2260)

 CYCLE    6
 d-Pmat  mean:  0.18E-03
 imax=      3: -0.73E-03
 orbitals (Q,E):
 ---------------
 S :1...2            ( 2.00    -0.5130)  ( 0.00     0.4696)
 P :1...2            ( 2.00    -0.2013)  ( 0.00     0.4449)
 D :1...1            ( 0.00     1.2263)

 CYCLE    7
 d-Pmat  mean:  0.22E-04
 imax=      3:  0.90E-04
 orbitals (Q,E):
 ---------------
 S :1...2            ( 2.00    -0.5130)  ( 0.00     0.4696)
 P :1...2            ( 2.00    -0.2013)  ( 0.00     0.4449)
 D :1...1            ( 0.00     1.2263)

 CYCLE    8
 d-Pmat  mean:  0.19E-06
 imax=      3:  0.80E-06
 orbitals (Q,E):
 ---------------
 S :1...2            ( 2.00    -0.5130)  ( 0.00     0.4696)
 P :1...2            ( 2.00    -0.2013)  ( 0.00     0.4449)
 D :1...1            ( 0.00     1.2263)

 CYCLE    9
 d-Pmat  mean:  0.42E-11
 imax=      3: -0.18E-10
 orbitals (Q,E):
 ---------------
 S :1...2            ( 2.00    -0.5130)  ( 0.00     0.4696)
 P :1...2            ( 2.00    -0.2013)  ( 0.00     0.4449)
 D :1...1            ( 0.00     1.2263)

 SCF CONVERGED

 CYCLE   10
1
 ***************************************************************************************************



                                                *******************
                                                *  R E S U L T S  *
                                                *******************
  
 *** Setting up for NEW gradients in focky
 *** Using FIT density in focky

 Scaled ZORA Orbital Energies, per Irrep and Spin:
 =================================================
                        Occup              E (au)              E (eV)       Diff (eV) with prev. cycle
                        -----      --------------------        ------       --------------------------
 S
               1        2.000     -0.51302252394563E+00       -13.960               1.15E-12
               2        0.000      0.46959403212229E+00        12.778
 P
               1        2.000     -0.20130361609356E+00        -5.478               1.08E-12
               2        0.000      0.44488607868185E+00        12.106
 D
               1        0.000      0.12262745551483E+01        33.369


 Partially Occupied:
               1 P                -0.20130361609356E+00
  
 HOMO :        1 S                -0.51302252394563E+00
 LUMO :        2 P                 0.44488607868185E+00
  


 Orbital Energies, all Irreps
 ========================================

 Irrep        no.  (spin)   Occup              E (au)                E (eV)
 ---------------------------------------------------------------------------
 S             1             2.00       -0.51302252394563E+00       -13.9601
 P             1             2.00       -0.20130361609356E+00        -5.4778
 P             2             0.00        0.44488607868185E+00        12.1060
 S             2             0.00        0.46959403212229E+00        12.7783
 D             1             0.00        0.12262745551483E+01        33.3686


 Scaled ZORA Orbital Energies of the Core Orbitals:
 ==================================================

 (Note that the atoms are grouped by atomtype, see the labels, and may hence NOT be in input order)

 AtomType  Orbital  Atom                   E (au)                        E (eV)
 --------  -------  ----           --------------------        ----------------
 C           1S        1          -0.10065868007635E+02                -273.906



 =======================================
 M U L L I K E N   P O P U L A T I O N S
 =======================================
  
 The survey below gives for each atom:
 a) the total charge (Z minus electrons)
 b) the net spin polarization (nr of electrons spin-A minus spin-B)
 c) for each spin the atomic electron valence density (integrated) per L-value.

 Atom              Charge    Spin density          S         P         D         F
 ----              ------    ------------       ------    ------    ------    ------
 1 C               0.0000                       2.0000    2.0000    0.0000    0.0000

 Populations of individual BAS functions
 ----------------------------------------
 1 C            0.0006  0.8687  1.1307  0.3641  0.3641  0.3641  0.3025  0.3025  0.3025  0.0000
                0.0000  0.0000  0.0000  0.0000  0.0000

 Gross Charges per Atom (Z minus electrons)
 ==========================================
             0.0000
 Net Total:  0.00000000



 =======================================================================
 Electrostatic potential at the Nuclei due to electrons and other nuclei
 =======================================================================
  
         Atom                  Potential
         ----                  ---------
     1)   C                  14.63460621
 
 
 ========================
 No memory problems found
 ========================
 
 Maximum number of active allocate calls:         402
 
 *******************************************************************************

                             A D F   E X I T
 NORMAL TERMINATION



 =================
 Timing Statistics
 =================
  
 Total Used :                     CPU=        0.68      System=        0.08     Elapsed=        0.86

 Calls  Section                     ( Mean, Percentage )
 ---------------------------------------------------------------------------------------------------
     3  ><      ................      0.00    0.00             0.00    5.00             0.00    0.98
     1  INIT    ................      0.03    4.09             0.02   25.00             0.09   10.07
     1  GEOMET  ................      0.02    3.51             0.02   25.00             0.05    5.82
     1  INPUTA  ................      0.00    0.58             0.00    5.00             0.01    1.57
     1  MAINSY  ................      0.01    1.17             0.00    5.00             0.02    2.38
     1  SYMFIT  ................      0.00    0.00             0.00    0.00             0.00    0.12
     1  CORORT  ................      0.00    0.00             0.00    0.00             0.00    0.11
     1  SYMORB  ................      0.00    0.58             0.00    0.00             0.00    0.15
     1  CLSMAT  ................      0.00    0.58             0.00    0.00             0.01    0.72
     1  ORTHON  ................      0.00    0.58             0.00    0.00             0.00    0.25
     1  GENPT   ................      0.04    6.43             0.01   15.00             0.06    6.78
     1  PTBAS   ................      0.00    0.58             0.00    0.00             0.00    0.52
    10  FOCKY   ................      0.05   68.42             0.00    5.00             0.05   54.80
    10  FOCKTR  ................      0.00    0.00             0.00    0.00             0.00    0.45
    10  FOCKNM  ................      0.00    0.00             0.00    0.00             0.00    0.06
    10  SDIIS   ................      0.00    1.17             0.00    0.00             0.00    1.01
    10  EMERGE  ................      0.00    4.68             0.00   15.00             0.01    6.93
     1  COREPS  ................      0.02    2.92             0.00    0.00             0.03    3.03
     1  POPAN   ................      0.00    0.58             0.00    0.00             0.01    0.60
     1  DEBYE   ................      0.00    0.00             0.00    0.00             0.00    0.10
     1  EXIT PROCEDURE .........      0.03    4.09             0.00    0.00             0.03    3.56


 Currently Open Files (EXIT00)
 ====================

 Unit    Access Format  Status   Type       Ident (file)
 -------------------------------------------------------
   3      SEQ    FORM   TRANSP  NORMAL      LOGFILE
                                          ( logfile )


 Buffered I/O statistics
 =======================
 Memory available:                     67108864
 Number of records fitting in memory:     16131
 Input :   1.2% of                         3740  *4k bytes
 Output:  10.0% of                         1956  *4k bytes
 Records from serial files evicted:           0
                    others evicted:           0
 Hash table lookups:      15686 with          0 conflicts (  0.00%)

 ***************************************************************************************************
 (LOGFILE)
 <Jul03-2018> <13:07:17>  DIRAC 2014  RunTime: Jul03-2018 13:07:17  Nodes: 1  Procs: 1
 <Jul03-2018> <13:07:17>  NORMAL TERMINATION
 <Jul03-2018> <13:07:17>  END
 <Jul03-2018> <13:07:18>  ADF 2014  RunTime: Jul03-2018 13:07:18  Nodes: 1  Procs: 1
 <Jul03-2018> <13:07:18>  Hydrogen (DZP)
 <Jul03-2018> <13:07:18>  RunType   : CREATE
 <Jul03-2018> <13:07:18>  Net Charge: 0 (Nuclei minus Electrons)
 <Jul03-2018> <13:07:18>  Symmetry  : ATOM
  Coordinates
    Atom         X           Y           Z   (Angstrom)
    1.H         0.000000    0.000000    0.000000
 <Jul03-2018> <13:07:18>  >>>> CORORT
 <Jul03-2018> <13:07:18>  >>>> CLSMAT
 <Jul03-2018> <13:07:18>  >>>> ORTHON
 <Jul03-2018> <13:07:18>  >>>> GENPT
 <Jul03-2018> <13:07:18>  Block Length=  64
 <Jul03-2018> <13:07:18>  >>>> PTBAS
 <Jul03-2018> <13:07:18>  >>>> CYCLE
 <Jul03-2018> <13:07:18>    1
 <Jul03-2018> <13:07:18>    2  ErrMat   0.03300193  MaxEl  0.03300193
 <Jul03-2018> <13:07:18>    3  ErrMat   0.00595445  MaxEl -0.00595445
 <Jul03-2018> <13:07:18>    4  ErrMat   0.00032522  MaxEl  0.00032522
 <Jul03-2018> <13:07:18>    5  ErrMat   0.00001808  MaxEl -0.00001808
 <Jul03-2018> <13:07:18>    6  ErrMat   0.00000100  MaxEl  0.00000100
 <Jul03-2018> <13:07:18>    7  ErrMat   0.00000006  MaxEl -0.00000006
 <Jul03-2018> <13:07:18>    8  ErrMat   0.00000000  MaxEl  0.00000000
 <Jul03-2018> <13:07:18>  SCF converged
 <Jul03-2018> <13:07:18>    9  ErrMat   0.00000000  MaxEl  0.00000000
 <Jul03-2018> <13:07:18>   Solutions with partially occupied orbitals may not be
 <Jul03-2018> <13:07:18>   lowest in energy. You might consider lowering the
 <Jul03-2018> <13:07:18>   symmetry in the input and explicitly specifying integer
 <Jul03-2018> <13:07:18>   occupations. In that case always check that you obtain
 <Jul03-2018> <13:07:18>   an aufbau solution.
 <Jul03-2018> <13:07:18>  >>>> POPAN
 <Jul03-2018> <13:07:18>  >>>> DEBYE
 <Jul03-2018> <13:07:18>  NORMAL TERMINATION
 <Jul03-2018> <13:07:18>  END
 <Jul03-2018> <13:07:18>  DIRAC 2014  RunTime: Jul03-2018 13:07:18  Nodes: 1  Procs: 1
 <Jul03-2018> <13:07:19>  NORMAL TERMINATION
 <Jul03-2018> <13:07:19>  END
 <Jul03-2018> <13:07:19>  ADF 2014  RunTime: Jul03-2018 13:07:19  Nodes: 1  Procs: 1
 <Jul03-2018> <13:07:19>  Carbon (DZP, 1s frozen)
 <Jul03-2018> <13:07:19>  RunType   : CREATE
 <Jul03-2018> <13:07:19>  Net Charge: 0 (Nuclei minus Electrons)
 <Jul03-2018> <13:07:19>  Symmetry  : ATOM
  Coordinates
    Atom         X           Y           Z   (Angstrom)
    1.C         0.000000    0.000000    0.000000
 <Jul03-2018> <13:07:19>  >>>> CORORT
 <Jul03-2018> <13:07:19>  >>>> CLSMAT
 <Jul03-2018> <13:07:19>  >>>> ORTHON
 <Jul03-2018> <13:07:19>  >>>> GENPT
 <Jul03-2018> <13:07:19>  Block Length=  68
 <Jul03-2018> <13:07:19>  >>>> PTBAS
 <Jul03-2018> <13:07:19>  >>>> CYCLE
 <Jul03-2018> <13:07:19>    1
 <Jul03-2018> <13:07:19>    2  ErrMat   0.96385221  MaxEl  0.85255436
 <Jul03-2018> <13:07:19>    3  ErrMat   0.69816270  MaxEl -0.60759186
 <Jul03-2018> <13:07:19>    4  ErrMat   0.49536403  MaxEl -0.42387205
 <Jul03-2018> <13:07:19>    5  ErrMat   0.00687750  MaxEl  0.00623161
 <Jul03-2018> <13:07:19>    6  ErrMat   0.00052449  MaxEl  0.00042755
 <Jul03-2018> <13:07:19>    7  ErrMat   0.00007249  MaxEl -0.00005981
 <Jul03-2018> <13:07:20>    8  ErrMat   0.00000064  MaxEl -0.00000052
 <Jul03-2018> <13:07:20>    9  ErrMat   0.00000000  MaxEl  0.00000000
 <Jul03-2018> <13:07:20>  SCF converged
 <Jul03-2018> <13:07:20>   10  ErrMat   0.00000000  MaxEl  0.00000000
 <Jul03-2018> <13:07:20>   Solutions with partially occupied orbitals may not be
 <Jul03-2018> <13:07:20>   lowest in energy. You might consider lowering the
 <Jul03-2018> <13:07:20>   symmetry in the input and explicitly specifying integer
 <Jul03-2018> <13:07:20>   occupations. In that case always check that you obtain
 <Jul03-2018> <13:07:20>   an aufbau solution.
 <Jul03-2018> <13:07:20>  >>>> POPAN
 <Jul03-2018> <13:07:20>  >>>> DEBYE
 <Jul03-2018> <13:07:20>  NORMAL TERMINATION
 <Jul03-2018> <13:07:20>  END


 Parallel Execution: Process Information
 ==============================================================================
 Rank   Node Name                              NodeID   MyNodeRank  NodeMaster
    0   node03                                    0          0          0
    1   node03                                    0          1         -1
    2   node03                                    0          2         -1
    3   node03                                    0          3         -1
    4   node03                                    0          4         -1
    5   node03                                    0          5         -1
    6   node03                                    0          6         -1
    7   node03                                    0          7         -1
    8   node03                                    0          8         -1
    9   node03                                    0          9         -1
   10   node03                                    0         10         -1
   11   node03                                    0         11         -1
 ==============================================================================



title Ethane

xc
 gga pbe
end

geometry
END

Relativistic scalar ZORA

numericalquality excellent

atoms cartesian
C -1.029946    0.391110    0.008468
H -0.683262   -0.653778   -0.026630
H -0.681599    0.881991   -0.913977
H -2.130638    0.371442   -0.027636
C -0.523518    1.107288    1.248937
H  0.577174    1.126981    1.285027
H -0.870224    2.152169    1.284049
H -0.871842    0.616392    2.171382
end

Fragments
H t21.H
C t21.C
End
end input

 *******************************************************************************
 *                                                                             *
 *  -------------------------------------                                      *
 *   Amsterdam Density Functional  (ADF)         2014                          *
 *  -------------------------------------                                      *
 *                                               r48167 2015-10-14             *
 *                                                                             *
 *                                                                             *
 *                              =================                              *
 *                              |               |                              *
 *                              |     A D F     |                              *
 *                              |               |                              *
 *                              =================                              *
 *                                                                             *
 *                                                                             *
 *   Online information and documentation:  http://www.scm.com                 *
 *   E-mail:  support@scm.com   info@scm.com                                   *
 *                                                                             *
 *   Scientific publications using ADF results must be properly referenced     *
 *   See the User Manuals (or the web site) for recommended citations          *
 *   The terms and conditions of the End User License Agreement apply to       *
 *   the use of ADF, http://www.scm.com/Sales/LicAgreement.html                *
 *                                                                             *
 **********************  x86_64_linux_intel / intelmpi  ************************
 
 Licensed to: Prof. Max Holthausen / Johann Wolfgang Goethe-Universit?t / Frankfurt Am Main / GERMANY
 SCM User ID: u11912
  
 ADF 2014  RunTime: Jul03-2018 13:07:22  Nodes: 1  Procs: 12

 Temporary files are created in /scratch/29415/loeschmich/kid_0.akajw1


Communication costs MPI_COMM_WORLD:      3.637 usec per message,   0.0165 usec per 8-byte item
Communication costs for intra-node:      3.272 usec per message,   0.0148 usec per 8-byte item

 Ethane



 ===========================
 A T T A C H E D   F I L E S
 ===========================
  



 ===============================
 M O D E L   P A R A M E T E R S
 ===============================
  
 DENSITY FUNCTIONAL POTENTIAL (scf)
    LDA:                               PW92                                    == Not Default ==
    Gradient Corrections:              PBEc PBEx                               == Not Default ==

 SPIN  (restricted / unrestr.)
    Molecule:                          Restricted                               
    Fragments:                         Restricted                               

 OTHER ASPECTS
    Relativistic Corrections:          scalar (ZORA,SAPA)                      == Not Default ==

    Nuclear Charge Density Model:      Point Charge Nuclei                                                                                                                                                                                     
    Core Treatment:                    Frozen Orbital(s)                        

    Hyperfine or Zeeman Interaction:   ---                                      


 Fragment File(s)
 ----------------
 C:
         file : t21.C
         jobid: ADF 2014  RunTime: Jul03-2018 13:07:19  Nodes: 1  Procs: 1
         title: Carbon (DZP, 1s frozen)
 H:
         file : t21.H
         jobid: ADF 2014  RunTime: Jul03-2018 13:07:18  Nodes: 1  Procs: 1
         title: Hydrogen (DZP)



                                   *********************************************
                                   *  R U N   T Y P E : GEOMETRY OPTIMIZATION  *
                                   *********************************************
  



 ===============
 G E O M E T R Y  ***  3D  Molecule  ***
 ===============
  

 ATOMS
 =====                            X Y Z                    CHARGE
                                (Angstrom)             Nucl     +Core       At.Mass
                       --------------------------    ----------------       -------
    1  C               0.0000    0.0000   -0.7596      6.00      4.00       12.0000
    2  H               0.0000   -1.0240   -1.1653      1.00      1.00        1.0078
    3  H               0.8868    0.5120   -1.1653      1.00      1.00        1.0078
    4  H              -0.8868    0.5120   -1.1653      1.00      1.00        1.0078
    5  C               0.0000    0.0000    0.7596      6.00      4.00       12.0000
    6  H               0.8868   -0.5120    1.1653      1.00      1.00        1.0078
    7  H               0.0000    1.0240    1.1653      1.00      1.00        1.0078
    8  H              -0.8868   -0.5120    1.1653      1.00      1.00        1.0078


 FRAGMENTS
 =========                                     Atoms in this Fragment     Cart. coord.s (Angstrom)
                                               -------------------------------------------------------
    1  C                                                 1  C            0.0000    0.0000   -0.7596
    2  C                                                 5  C            0.0000    0.0000    0.7596
    3  H                                                 2  H            0.0000   -1.0240   -1.1653
    4  H                                                 3  H            0.8868    0.5120   -1.1653
    5  H                                                 4  H           -0.8868    0.5120   -1.1653
    6  H                                                 6  H            0.8868   -0.5120    1.1653
    7  H                                                 7  H            0.0000    1.0240    1.1653
    8  H                                                 8  H           -0.8868   -0.5120    1.1653


 Interatomic Distance Matrix (Angstrom)
 --------------------------------------

   1)     0.000
   2)     1.101   0.000
   3)     1.101   1.774   0.000
   4)     1.101   1.774   1.774   0.000
   5)     1.519   2.180   2.180   2.180   0.000
   6)     2.180   2.546   2.546   3.103   1.101   0.000
   7)     2.180   3.103   2.546   2.546   1.101   1.774   0.000
   8)     2.180   2.546   3.103   2.546   1.101   1.774   1.774   0.000

 Min. Distance =    1.1015
 Max. Distance =    3.1026



 =====================================
 S Y M M E T R Y ,   E L E C T R O N S
 =====================================
  
 Symmetry: D(3D)

 Irreducible Representations, including subspecies
 -------------------------------------------------
 A1.g
 A2.g
 E1.g:1  E1.g:2
 A1.u
 A2.u
 E1.u:1  E1.u:2


 Configuration of Valence Electrons
 ==================================
 ( determined in the SCF procedure )

 Total:   14

 Net Charge: 0 (Nuclei minus Electrons)

 Aufbau principle for MO occupations will be applied through SCF cycle no.      30
 Thereafter, the program will assign electrons to MOs that are spatially
 similar to the occupied MOs in a "reference" cycle ("KeepOrbitals").
 The reference cycle is always the PREVIOUS cycle: it will evolve with
 the SCF procedure.
1
 ***************************************************************************************************



                                      ****************************************
                                      *  B U I L D : (Fragments, Functions)  *
                                      ****************************************
  



 =======
 S F O s  ***  (Symmetrized Fragment Orbitals)  ***
 =======
  
 SFOs are linear combinations of (valence) Fragment Orbitals (FOs), such that the SFOs transform as the
 irreducible representations of the (molecular) symmetry group. Each SFO is therefore characterized by
 an irrep of the molecule and by a few (or only one) generating FOs.
 The SFOs constitute a symmetry-adapted basis for the Fock matrix. The MO eigenvector coefficients in
 this basis provide a direct interpretation of the MOs in terms of Frontier Orbital Theory.

 The SFOs are combined with auxiliary Core Functions (CFs) to ensure orthogonalization on the (frozen)
 Core Orbitals (COs). The Core-orthogonalized SFOs (CSFOs) constitute the true Fock basis.

 The FOs, and hence also the (C)SFOs are combinations of the elementary basis functions (BAS). The basis
 functions that participate in the description of the SFOs depend on the irrep. The indices of the
 involved functions are printed below for each irrep.
 (The complete list of primitive basis functions is printed in another section)

 Total nr. of (C)SFOs (summation over all irreps) :    56

 NOTE: a (C)SFO that is defined as a combination of more than one FO is usually NOT normalized.



                                       === A1.g ===
 Nr. of SFOs :    9
 Cartesian basis functions that participate in this irrep (total number =    44) :
      1    16     2    17     3    18     6    21     9    24
     15    30    10    13    25    28    31    36    41    46
     51    56    32    37    42    47    52    57    35    40
     45    50    55    60    34    38    39    43    44    48
     49    54    58    59

    SFO  (index         Fragment          Generating    Expansion in Fragment Orbitals
  indx  incl.CFs)   Occup   Orb.Energy   FragmentType  Coeff.   Orbital     on Fragment
 --------------------------------------------------------------------------------------
     1       3      2.000      -0.513 au  C             0.71      1 S               1
                        (     -13.961 eV)               0.71      1 S               2
     2       4       --         0.470 au  C             0.71      2 S               1
                        (      12.779 eV)               0.71      2 S               2
     3       5      0.667      -0.201 au  C             0.71      1 P:z             1
                        (      -5.478 eV)              -0.71      1 P:z             2
     4       6       --         0.445 au  C             0.71      2 P:z             1
                        (      12.107 eV)              -0.71      2 P:z             2
     5       7       --         1.226 au  C             0.71      1 D:z2            1
                        (      33.371 eV)               0.71      1 D:z2            2
     6       8      1.000      -0.239 au  H             0.41      1 S               3
                        (      -6.514 eV)               0.41      1 S               4
                                                        0.41      1 S               5
                                                        0.41      1 S               6
                                                        0.41      1 S               7
                                                        0.41      1 S               8
     7       9       --         0.390 au  H             0.41      2 S               3
                        (      10.619 eV)               0.41      2 S               4
                                                        0.41      2 S               5
                                                        0.41      2 S               6
                                                        0.41      2 S               7
                                                        0.41      2 S               8
     8      10       --         0.405 au  H             0.41      1 P:y             3
                        (      11.016 eV)              -0.35      1 P:x             4
                                                       -0.20      1 P:y             4
                                                        0.35      1 P:x             5
                                                       -0.20      1 P:y             5
                                                       -0.35      1 P:x             6
                                                        0.20      1 P:y             6
                                                       -0.41      1 P:y             7
                                                        0.35      1 P:x             8
                                                        0.20      1 P:y             8
     9      11       --         0.405 au  H             0.41      1 P:z             3
                        (      11.016 eV)               0.41      1 P:z             4
                                                        0.41      1 P:z             5
                                                       -0.41      1 P:z             6
                                                       -0.41      1 P:z             7
                                                       -0.41      1 P:z             8



                                       === A2.g ===
 Nr. of SFOs :    1
 Cartesian basis functions that participate in this irrep (total number =    10) :
     33    38    39    43    44    48    49    53    58    59

    SFO  (index         Fragment          Generating    Expansion in Fragment Orbitals
  indx  incl.CFs)   Occup   Orb.Energy   FragmentType  Coeff.   Orbital     on Fragment
 --------------------------------------------------------------------------------------
     1       1       --         0.405 au  H             0.41      1 P:x             3
                        (      11.016 eV)              -0.20      1 P:x             4
                                                        0.35      1 P:y             4
                                                       -0.20      1 P:x             5
                                                       -0.35      1 P:y             5
                                                        0.20      1 P:x             6
                                                        0.35      1 P:y             6
                                                       -0.41      1 P:x             7
                                                        0.20      1 P:x             8
                                                       -0.35      1 P:y             8



                                       === E1.g:1 ===
 Nr. of SFOs :    9
 Cartesian basis functions that participate in this irrep (total number =    38) :
      5    20     8    23    14    29    10    13    25    28
     31    36    41    46    51    56    32    37    42    47
     52    57    35    40    45    50    55    60    34    38
     39    43    44    48    49    54    58    59

    SFO  (index         Fragment          Generating    Expansion in Fragment Orbitals
  indx  incl.CFs)   Occup   Orb.Energy   FragmentType  Coeff.   Orbital     on Fragment
 --------------------------------------------------------------------------------------
     1       1      0.667      -0.201 au  C             0.71      1 P:y             1
                        (      -5.478 eV)              -0.71      1 P:y             2
     2       2       --         0.445 au  C             0.71      2 P:y             1
                        (      12.107 eV)              -0.71      2 P:y             2
     3       3       --         1.226 au  C             0.71      1 D:x2-y2         1
                        (      33.371 eV)               0.71      1 D:x2-y2         2
     4       4       --         1.226 au  C             0.71      1 D:yz            1
                        (      33.371 eV)               0.71      1 D:yz            2
     5       5      1.000      -0.239 au  H             0.58      1 S               3
                        (      -6.514 eV)              -0.29      1 S               4
                                                       -0.29      1 S               5
                                                       -0.29      1 S               6
                                                        0.58      1 S               7
                                                       -0.29      1 S               8
     6       6       --         0.390 au  H             0.58      2 S               3
                        (      10.619 eV)              -0.29      2 S               4
                                                       -0.29      2 S               5
                                                       -0.29      2 S               6
                                                        0.58      2 S               7
                                                       -0.29      2 S               8
     7       7       --         0.405 au  H             0.58      1 P:y             3
                        (      11.016 eV)               0.25      1 P:x             4
                                                        0.14      1 P:y             4
                                                       -0.25      1 P:x             5
                                                        0.14      1 P:y             5
                                                        0.25      1 P:x             6
                                                       -0.14      1 P:y             6
                                                       -0.58      1 P:y             7
                                                       -0.25      1 P:x             8
                                                       -0.14      1 P:y             8
     8       8       --         0.405 au  H             0.58      1 P:z             3
                        (      11.016 eV)              -0.29      1 P:z             4
                                                       -0.29      1 P:z             5
                                                        0.29      1 P:z             6
                                                       -0.58      1 P:z             7
                                                        0.29      1 P:z             8
     9       9       --         0.405 au  H             0.25      1 P:x             4
                        (      11.016 eV)              -0.43      1 P:y             4
                                                       -0.25      1 P:x             5
                                                       -0.43      1 P:y             5
                                                        0.25      1 P:x             6
                                                        0.43      1 P:y             6
                                                       -0.25      1 P:x             8
                                                        0.43      1 P:y             8



                                       === E1.g:2 ===
 Nr. of SFOs :    9
 Cartesian basis functions that participate in this irrep (total number =    30) :
      4    19     7    22    12    27    11    26    36    41
     46    56    37    42    47    57    40    45    50    60
     33    38    39    43    44    48    49    53    58    59

    SFO  (index         Fragment          Generating    Expansion in Fragment Orbitals
  indx  incl.CFs)   Occup   Orb.Energy   FragmentType  Coeff.   Orbital     on Fragment
[...]
    2.H         -0.408   0.000   0.000         0.228   0.017  -0.057         0.026  -0.154   0.502
    3.H          0.204  -0.354   0.000         0.169  -0.008   0.463         0.051  -0.213  -0.202
    4.H          0.204   0.354   0.000         0.176   0.056  -0.406        -0.012  -0.206  -0.300
    5.C          0.000   0.000   0.000        -0.048  -0.005   0.000        -0.005   0.048   0.000
    6.H          0.204   0.354   0.000         0.176   0.056  -0.406        -0.012  -0.206  -0.300
    7.H         -0.408   0.000   0.000         0.228   0.017  -0.057         0.026  -0.154   0.502
    8.H          0.204  -0.354   0.000         0.169  -0.008   0.463         0.051  -0.213  -0.202


                       978.721                      1170.561                      1170.561
              ------------------------      ------------------------      ------------------------
    1.C          0.000   0.000  -0.331        -0.134  -0.059   0.000        -0.059   0.134   0.000
    2.H          0.000   0.007  -0.361         0.254   0.023  -0.197         0.112  -0.051   0.448
    3.H         -0.006  -0.003  -0.361         0.063   0.002   0.486         0.132  -0.242  -0.053
    4.H          0.006  -0.003  -0.361         0.140   0.177  -0.289        -0.043  -0.164  -0.394
    5.C          0.000   0.000   0.331         0.134   0.059   0.000         0.059  -0.134   0.000
    6.H         -0.006   0.003   0.361        -0.140  -0.177   0.289         0.043   0.164   0.394
    7.H          0.000  -0.007   0.361        -0.254  -0.023   0.197        -0.112   0.051  -0.448
    8.H          0.006   0.003   0.361        -0.063  -0.002  -0.486        -0.132   0.242   0.053


                      1353.926                      1364.639                      1447.354
              ------------------------      ------------------------      ------------------------
    1.C          0.000   0.000   0.093         0.000   0.000   0.101         0.031  -0.038   0.000
    2.H          0.000   0.164  -0.370         0.000   0.171  -0.366        -0.322  -0.095   0.181
    3.H         -0.142  -0.082  -0.370        -0.148  -0.085  -0.366        -0.236   0.448   0.036
    4.H          0.142  -0.082  -0.370         0.148  -0.085  -0.366         0.191   0.102  -0.217
    5.C          0.000   0.000   0.093         0.000   0.000  -0.101         0.031  -0.038   0.000
    6.H          0.142  -0.082  -0.370        -0.148   0.085   0.366         0.191   0.102  -0.217
    7.H          0.000   0.164  -0.370         0.000  -0.171   0.366        -0.322  -0.095   0.181
    8.H         -0.142  -0.082  -0.370         0.148   0.085   0.366        -0.236   0.448   0.036


                      1447.354                      1451.828                      1451.828
              ------------------------      ------------------------      ------------------------
    1.C          0.038   0.031   0.000         0.018  -0.003   0.000        -0.003  -0.018   0.000
    2.H         -0.398   0.077  -0.147        -0.473  -0.017   0.043         0.069  -0.115   0.298
    3.H          0.145  -0.009   0.230        -0.069   0.302   0.237        -0.250   0.289  -0.187
    4.H         -0.201  -0.436  -0.083         0.005  -0.207  -0.280         0.260   0.363  -0.112
    5.C          0.038   0.031   0.000        -0.018   0.003   0.000         0.003   0.018   0.000
    6.H         -0.201  -0.436  -0.083        -0.005   0.207   0.280        -0.260  -0.363   0.112
    7.H         -0.398   0.077  -0.147         0.473   0.017  -0.043        -0.069   0.115  -0.298
    8.H          0.145  -0.009   0.230         0.069  -0.302  -0.237         0.250  -0.289   0.187


                      2939.652                      2940.338                      3019.950
              ------------------------      ------------------------      ------------------------
    1.C          0.000   0.000   0.036         0.000   0.000   0.034         0.039  -0.052   0.000
    2.H          0.000  -0.383  -0.139         0.000  -0.384  -0.136         0.011   0.428   0.164
    3.H          0.332   0.192  -0.139         0.333   0.192  -0.136        -0.049  -0.049   0.026
    4.H         -0.332   0.192  -0.139        -0.333   0.192  -0.136        -0.432   0.241  -0.189
    5.C          0.000   0.000  -0.036         0.000   0.000   0.034        -0.039   0.052   0.000
    6.H          0.332  -0.192   0.139        -0.333   0.192  -0.136         0.432  -0.241   0.189
    7.H          0.000   0.383   0.139         0.000  -0.384  -0.136        -0.011  -0.428  -0.164
    8.H         -0.332  -0.192   0.139         0.333   0.192  -0.136         0.049   0.049  -0.026


                      3019.950                      3042.700                      3042.700
              ------------------------      ------------------------      ------------------------
    1.C         -0.052  -0.039   0.000         0.030  -0.058   0.000         0.058   0.030   0.000
    2.H         -0.015   0.324   0.124         0.007   0.476   0.185         0.014  -0.245  -0.095
    3.H          0.462   0.264  -0.204         0.030  -0.001  -0.010        -0.463  -0.268   0.207
    4.H          0.172  -0.119   0.080        -0.395   0.218  -0.175        -0.244   0.157  -0.112
    5.C          0.052   0.039   0.000         0.030  -0.058   0.000         0.058   0.030   0.000
    6.H         -0.172   0.119  -0.080        -0.395   0.218  -0.175        -0.244   0.157  -0.112
    7.H          0.015  -0.324  -0.124         0.007   0.476   0.185         0.014  -0.245  -0.095
    8.H         -0.462  -0.264   0.204         0.030  -0.001  -0.010        -0.463  -0.268   0.207




 List of All Frequencies:


 Intensities
 ===========

               Frequency       Dipole Strength        Absorption Intensity (degeneracy not counted)
                 cm-1           1e-40 esu2 cm2          km/mole
              ----------          ----------          ----------
              311.321076            0.000000            0.000000
              798.569400           31.957373            6.396786
              798.569400           31.957373            6.396786
              978.721010            0.000000            0.000000
             1170.560594            0.000000            0.000000
             1170.560594            0.000000            0.000000
             1353.926360           12.573115            4.266935
             1364.639100            0.000000            0.000000
             1447.354002           40.730630           14.776581
             1447.354002           40.730630           14.776581
             1451.828056            0.000000            0.000000
             1451.828056            0.000000            0.000000
             2939.651672            0.000000            0.000000
             2940.338139           66.210800           48.798243
             3019.950281            0.000000            0.000000
             3019.950281            0.000000            0.000000
             3042.699855           42.228909           32.206761
             3042.699855           42.228909           32.206761



 ============================
 Statistical Thermal Analysis  ***  ideal gas assumed  ***
 ============================
  
 Pressure:                  1.000000 atm.
 Temperature:             298.150000 K



 Moments of Inertia (and direction vectors)
 ==========================================

          22.7249         90.6165         90.6165
 ------------------------------------------------
           0.0000          1.0000          0.0000
           0.0000          0.0000          1.0000
           1.0000          0.0000          0.0000


 The rotational contribution to the molecular entropy includes
 a term, dependent on the symmetry number sigma. The results 
 reported below were computed using sigma = 6, determined from
 the point group symmetry of the input geometry (D(3D)). 
 If this is not the correct symmetry, please contact SCM to report a bug.
 Contributions from frequencies below 20 1/cm are not included in
 the vibrational sums. Their contributions, if any, are reported separately.


     Temp                                                       Transl     Rotat    Vibrat     Total
     ----                                                       ------     -----    ------     -----

     298.15   Entropy (cal/mole-K):                             36.134    16.301     2.069    54.504
              Internal Energy (Kcal/mole):                       0.889     0.889    45.818    47.596
              Constant Volume Heat Capacity (cal/mole-K):        2.981     2.981     4.411    10.372
 

 ***************************************************************************************************
 


====================================================================
*** DONE CALCULATING ANALYTICAL SECOND DERIVATIVES OF THE ENERGY ***
====================================================================

 
 
 ========================
 No memory problems found
 ========================
 
 Maximum number of active allocate calls:        1192
 
 *******************************************************************************

                             A D F   E X I T
 NORMAL TERMINATION



 =================
 Timing Statistics
 =================
  
 Total Used :                     CPU=      466.81      System=        2.77     Elapsed=      470.20

 Calls  Section                     ( Mean, Percentage )
 ---------------------------------------------------------------------------------------------------
     3  ><      ................      0.00    0.00             0.00    0.00             0.00    0.00
     1  INIT    ................      0.38    0.08             0.02    0.87             0.45    0.10
     1  GEOMET  ................      0.04    0.01             0.01    0.43             0.06    0.01
     1  FRAGM   ................      0.01    0.00             0.01    0.29             0.03    0.01
     1  INPUTA  ................      0.00    0.00             0.00    0.00             0.00    0.00
     1  ATDEN   ................      0.00    0.00             0.00    0.00             0.01    0.00
     1  MAINSY  ................      0.01    0.00             0.00    0.14             0.07    0.02
     1  SYMFIT  ................      0.00    0.00             0.00    0.00             0.01    0.00
     1  CORORT  ................      0.00    0.00             0.00    0.00             0.00    0.00
     1  SYMORB  ................      0.00    0.00             0.00    0.00             0.01    0.00
     1  CLSMAT  ................      0.00    0.00             0.00    0.00             0.01    0.00
     1  ORTHON  ................      0.00    0.00             0.00    0.00             0.02    0.00
     1  GENPT   ................      0.54    0.12             0.03    1.15             0.58    0.12
     1  PTBAS   ................      0.52    0.11             0.01    0.29             0.53    0.11
     9  FOCKY   ................     10.60   20.45             0.05   14.86            10.66   20.41
     9  FOCKTR  ................      0.00    0.00             0.00    0.14             0.00    0.00
     9  FOCKNM  ................      0.00    0.00             0.00    0.00             0.00    0.00
     9  SDIIS   ................      0.00    0.00             0.00    0.00             0.00    0.00
     9  EMERGE  ................      0.00    0.01             0.00    0.72             0.01    0.02
     1  COREPS  ................     10.03    2.15             0.00    0.14            10.04    2.14
     1  TOTEN   ................     24.67    5.28             0.10    3.61            24.79    5.27
     1  POPAN   ................      0.00    0.00             0.00    0.00             0.00    0.00
     1  DEBYE   ................      0.00    0.00             0.00    0.00             0.01    0.00
     1  INPUTE  ................      0.00    0.00             0.00    0.00             0.00    0.00
     1  SYMORE  ................      0.00    0.00             0.00    0.00             0.00    0.00
     1  METS    ................      0.00    0.00             0.00    0.00             0.00    0.00
     1  CETS    ................      0.00    0.00             0.00    0.00             0.00    0.00
     2  ELNRGY  ................      2.08    0.89             0.01    1.01             2.10    0.89
     1  POPUL   ................      0.01    0.00             0.01    0.43             0.04    0.01
     1  ENGRAD  ................      0.00    0.00             0.00    0.00             0.00    0.00
     1  ENHESS  ................    330.90   70.89             2.08   75.04           333.23   70.87
     1  EXIT PROCEDURE .........      0.01    0.00             0.02    0.87             0.06    0.01


 Currently Open Files (EXIT00)
 ====================

 Unit    Access Format  Status   Type       Ident (file)
 -------------------------------------------------------
   3      SEQ    FORM   TRANSP  NORMAL      LOGFILE
                                          ( logfile )


 Buffered I/O statistics
 =======================
 Memory available:                     67108864
 Number of records fitting in memory:     16131
 Input :   5.7% of                       967282  *4k bytes
 Output:   2.8% of                        73295  *4k bytes
 Records from serial files evicted:      128370
                    others evicted:      -80069
 Hash table lookups:    3093629 with     965511 conflicts ( 31.21%)

 ***************************************************************************************************
 (LOGFILE)
 <Jul03-2018> <13:13:42>  DIRAC 2014  RunTime: Jul03-2018 13:13:42  Nodes: 1  Procs: 1
 <Jul03-2018> <13:13:42>  NORMAL TERMINATION
 <Jul03-2018> <13:13:42>  END
 <Jul03-2018> <13:13:43>  ADF 2014  RunTime: Jul03-2018 13:13:43  Nodes: 1  Procs: 1
 <Jul03-2018> <13:13:43>  Hydrogen (DZP)
 <Jul03-2018> <13:13:43>  RunType   : CREATE
 <Jul03-2018> <13:13:43>  Net Charge: 0 (Nuclei minus Electrons)
 <Jul03-2018> <13:13:43>  Symmetry  : ATOM
  Coordinates
    Atom         X           Y           Z   (Angstrom)
    1.H         0.000000    0.000000    0.000000
 <Jul03-2018> <13:13:43>  >>>> CORORT
 <Jul03-2018> <13:13:43>  >>>> CLSMAT
 <Jul03-2018> <13:13:43>  >>>> ORTHON
 <Jul03-2018> <13:13:43>  >>>> GENPT
 <Jul03-2018> <13:13:43>  Block Length=  64
 <Jul03-2018> <13:13:43>  >>>> PTBAS
 <Jul03-2018> <13:13:43>  >>>> CYCLE
 <Jul03-2018> <13:13:43>    1
 <Jul03-2018> <13:13:43>    2  ErrMat   0.03300193  MaxEl  0.03300193
 <Jul03-2018> <13:13:43>    3  ErrMat   0.00595445  MaxEl -0.00595445
 <Jul03-2018> <13:13:43>    4  ErrMat   0.00032522  MaxEl  0.00032522
 <Jul03-2018> <13:13:43>    5  ErrMat   0.00001808  MaxEl -0.00001808
 <Jul03-2018> <13:13:43>    6  ErrMat   0.00000100  MaxEl  0.00000100
 <Jul03-2018> <13:13:43>    7  ErrMat   0.00000006  MaxEl -0.00000006
 <Jul03-2018> <13:13:43>    8  ErrMat   0.00000000  MaxEl  0.00000000
 <Jul03-2018> <13:13:43>  SCF converged
 <Jul03-2018> <13:13:43>    9  ErrMat   0.00000000  MaxEl  0.00000000
 <Jul03-2018> <13:13:43>   Solutions with partially occupied orbitals may not be
 <Jul03-2018> <13:13:43>   lowest in energy. You might consider lowering the
 <Jul03-2018> <13:13:43>   symmetry in the input and explicitly specifying integer
 <Jul03-2018> <13:13:43>   occupations. In that case always check that you obtain
 <Jul03-2018> <13:13:43>   an aufbau solution.
 <Jul03-2018> <13:13:43>  >>>> POPAN
 <Jul03-2018> <13:13:43>  >>>> DEBYE
 <Jul03-2018> <13:13:44>  NORMAL TERMINATION
 <Jul03-2018> <13:13:44>  END
 <Jul03-2018> <13:13:44>  DIRAC 2014  RunTime: Jul03-2018 13:13:44  Nodes: 1  Procs: 1
 <Jul03-2018> <13:13:44>  NORMAL TERMINATION
 <Jul03-2018> <13:13:44>  END
 <Jul03-2018> <13:13:45>  ADF 2014  RunTime: Jul03-2018 13:13:45  Nodes: 1  Procs: 1
 <Jul03-2018> <13:13:45>  Carbon (DZP, 1s frozen)
 <Jul03-2018> <13:13:45>  RunType   : CREATE
 <Jul03-2018> <13:13:45>  Net Charge: 0 (Nuclei minus Electrons)
 <Jul03-2018> <13:13:45>  Symmetry  : ATOM
  Coordinates
    Atom         X           Y           Z   (Angstrom)
    1.C         0.000000    0.000000    0.000000
 <Jul03-2018> <13:13:45>  >>>> CORORT
 <Jul03-2018> <13:13:45>  >>>> CLSMAT
 <Jul03-2018> <13:13:45>  >>>> ORTHON
 <Jul03-2018> <13:13:45>  >>>> GENPT
 <Jul03-2018> <13:13:45>  Block Length=  68
 <Jul03-2018> <13:13:45>  >>>> PTBAS
 <Jul03-2018> <13:13:45>  >>>> CYCLE
 <Jul03-2018> <13:13:45>    1
 <Jul03-2018> <13:13:45>    2  ErrMat   0.96385221  MaxEl  0.85255436
 <Jul03-2018> <13:13:45>    3  ErrMat   0.69816270  MaxEl -0.60759186
 <Jul03-2018> <13:13:45>    4  ErrMat   0.49536403  MaxEl -0.42387205
 <Jul03-2018> <13:13:45>    5  ErrMat   0.00687750  MaxEl  0.00623161
 <Jul03-2018> <13:13:45>    6  ErrMat   0.00052449  MaxEl  0.00042755
 <Jul03-2018> <13:13:45>    7  ErrMat   0.00007249  MaxEl -0.00005981
 <Jul03-2018> <13:13:45>    8  ErrMat   0.00000064  MaxEl -0.00000052
 <Jul03-2018> <13:13:45>    9  ErrMat   0.00000000  MaxEl  0.00000000
 <Jul03-2018> <13:13:45>  SCF converged
 <Jul03-2018> <13:13:45>   10  ErrMat   0.00000000  MaxEl  0.00000000
 <Jul03-2018> <13:13:45>   Solutions with partially occupied orbitals may not be
 <Jul03-2018> <13:13:45>   lowest in energy. You might consider lowering the
 <Jul03-2018> <13:13:45>   symmetry in the input and explicitly specifying integer
 <Jul03-2018> <13:13:45>   occupations. In that case always check that you obtain
 <Jul03-2018> <13:13:45>   an aufbau solution.
 <Jul03-2018> <13:13:45>  >>>> POPAN
 <Jul03-2018> <13:13:45>  >>>> DEBYE
 <Jul03-2018> <13:13:45>  NORMAL TERMINATION
 <Jul03-2018> <13:13:45>  END
 <Jul03-2018> <13:13:47>  ADF 2014  RunTime: Jul03-2018 13:13:47  Nodes: 1  Procs: 12
 <Jul03-2018> <13:13:48>  Ethane
 <Jul03-2018> <13:13:48>  RunType   : SINGLE POINT
 <Jul03-2018> <13:13:48>  Net Charge: 0 (Nuclei minus Electrons)
 <Jul03-2018> <13:13:48>  Symmetry  : D(3D)
 <Jul03-2018> <13:13:48>  >>>> FRAGM
  Coordinates
    Atom         X           Y           Z   (Angstrom)
    1.C         0.000000    0.000000   -0.763754
    2.H         0.000000   -1.025851   -1.164050
    3.H         0.888413    0.512926   -1.164050
    4.H        -0.888413    0.512926   -1.164050
    5.C         0.000000    0.000000    0.763754
    6.H         0.888413   -0.512926    1.164050
    7.H         0.000000    1.025851    1.164050
    8.H        -0.888413   -0.512926    1.164050
 <Jul03-2018> <13:13:48>  >>>> CORORT
 <Jul03-2018> <13:13:48>  >>>> CLSMAT
 <Jul03-2018> <13:13:48>  >>>> ORTHON
 <Jul03-2018> <13:13:48>  >>>> GENPT
 <Jul03-2018> <13:13:48>  Block Length= 128
 <Jul03-2018> <13:13:49>  >>>> PTBAS
 <Jul03-2018> <13:13:49>  >>>> CYCLE
 <Jul03-2018> <13:14:05>    1
 <Jul03-2018> <13:14:15>    2  ErrMat   0.87936167  MaxEl -0.28969384
 <Jul03-2018> <13:14:25>    3  ErrMat   0.45209871  MaxEl -0.14154488
 <Jul03-2018> <13:14:35>    4  ErrMat   0.06656057  MaxEl  0.01903977
 <Jul03-2018> <13:14:45>    5  ErrMat   0.00953965  MaxEl -0.00407848
 <Jul03-2018> <13:14:55>    6  ErrMat   0.00044107  MaxEl -0.00015803
 <Jul03-2018> <13:15:05>    7  ErrMat   0.00001196  MaxEl -0.00000404
 <Jul03-2018> <13:15:15>    8  ErrMat   0.00000049  MaxEl  0.00000013
 <Jul03-2018> <13:15:15>  SCF converged
 <Jul03-2018> <13:15:25>    9  ErrMat   0.00000003  MaxEl  0.00000001
 <Jul03-2018> <13:15:35>  >>>> TOTEN
 <Jul03-2018> <13:16:00>  >>>> POPAN
 <Jul03-2018> <13:16:00>  >>>> DEBYE
 <Jul03-2018> <13:16:00>  >>>> AMETS
 <Jul03-2018> <13:16:00>   Bond Energy          -1.47701963 a.u.
 <Jul03-2018> <13:16:00>   Bond Energy         -40.19174904 eV
 <Jul03-2018> <13:16:00>   Bond Energy        -926.84       kcal/mol
 <Jul03-2018> <13:16:00>  >>>> POPUL
 <Jul03-2018> <13:16:00>  >>>> ENGRAD
 <Jul03-2018> <13:16:04>  >>>> ENHESS
 <Jul03-2018> <13:16:08>  === NUCLEUS:     1
 <Jul03-2018> <13:18:51>  === NUCLEUS:     3
 <Jul03-2018> <13:21:32>  >>>> CALC_HESS_PMAT
 <Jul03-2018> <13:21:36>  >>>> CALC_HESS_WMAT
 <Jul03-2018> <13:21:37>  NORMAL TERMINATION
 <Jul03-2018> <13:21:37>  END
